ITEM: TIMESTEP
633
ITEM: NUMBER OF ATOMS
31560
ITEM: BOX BOUNDS pp pp pp
0.0000000000000000e+00 9.0560857329432693e+01
-8.9796685939963695e+01 8.9796685939963695e+01
0.0000000000000000e+00 3.2400037294283401e+01
ITEM: ATOMS id type x y z 
234 2 2.3597 -88.953 2.31759 
235 2 1.44927 -87.2946 0.292586 
238 2 1.44927 -87.2946 4.34259 
257 2 4.17648 -88.2165 0.292586 
259 2 3.28068 -86.3427 2.31759 
261 2 4.17648 -88.2165 4.34259 
82 2 6.88733 -88.9531 0.292586 
84 2 6.88733 -88.9531 4.34259 
99 2 8.7041 -88.2167 2.31759 
258 2 5.9769 -87.2947 2.31759 
289 2 7.80829 -86.3429 0.292586 
293 2 7.80829 -86.3429 4.34259 
98 2 11.4149 -88.9532 2.31759 
100 2 10.5045 -87.2948 0.292586 
104 2 10.5045 -87.2948 4.34259 
129 2 13.2317 -88.2168 0.292586 
131 2 12.3359 -86.343 2.31759 
133 2 13.2317 -88.2168 4.34259 
10 2 15.9426 -88.9534 0.292586 
12 2 15.9426 -88.9534 4.34259 
27 2 17.7594 -88.2171 2.31759 
130 2 15.0321 -87.295 2.31759 
161 2 16.8636 -86.3433 0.292586 
165 2 16.8636 -86.3433 4.34259 
26 2 20.4703 -88.9536 2.31759 
28 2 19.5598 -87.2953 0.292586 
32 2 19.5598 -87.2953 4.34259 
57 2 22.2871 -88.2173 0.292586 
58 2 21.3913 -86.3435 2.31759 
60 2 22.2871 -88.2173 4.34259 
441 2 0.541449 -85.4832 2.31759 
449 2 2.33525 -84.5684 0.292586 
450 2 4.13917 -83.6545 2.31759 
451 2 1.40755 -82.7555 2.31759 
452 2 3.20575 -81.8479 0.292586 
453 2 2.33525 -84.5684 4.34259 
456 2 3.20575 -81.8479 4.34259 
260 2 5.06909 -85.4832 0.292586 
264 2 5.06909 -85.4832 4.34259 
291 2 6.86286 -84.5685 2.31759 
292 2 8.66677 -83.6546 0.292586 
296 2 8.66677 -83.6546 4.34259 
481 2 5.93516 -82.7556 0.292586 
482 2 7.73335 -81.848 2.31759 
485 2 5.93516 -82.7556 4.34259 
290 2 9.5967 -85.4834 2.31759 
321 2 11.3905 -84.5687 0.292586 
322 2 13.1944 -83.6548 2.31759 
323 2 10.4628 -82.7558 2.31759 
324 2 12.2609 -81.8483 0.292586 
325 2 11.3905 -84.5687 4.34259 
328 2 12.2609 -81.8483 4.34259 
132 2 14.1243 -85.4836 0.292586 
136 2 14.1243 -85.4836 4.34259 
163 2 15.9181 -84.5689 2.31759 
164 2 17.7221 -83.6551 0.292586 
168 2 17.7221 -83.6551 4.34259 
353 2 14.9904 -82.7561 0.292586 
354 2 16.7886 -81.8486 2.31759 
357 2 14.9904 -82.7561 4.34259 
162 2 18.652 -85.4839 2.31759 
193 2 20.4458 -84.5692 0.292586 
194 2 22.2498 -83.6555 2.31759 
195 2 19.5181 -82.7564 2.31759 
196 2 21.3163 -81.849 0.292586 
197 2 20.4458 -84.5692 4.34259 
200 2 21.3163 -81.849 4.34259 
649 2 0.477403 -80.9408 0.292586 
650 2 2.27555 -80.0357 2.31759 
651 2 1.34501 -78.2232 0.292586 
652 2 0.477403 -80.9408 4.34259 
654 2 1.34501 -78.2232 4.34259 
673 2 4.07402 -79.1294 0.292586 
675 2 3.14342 -77.3173 2.31759 
677 2 4.07402 -79.1294 4.34259 
483 2 5.00501 -80.9408 2.31759 
484 2 6.80314 -80.0358 0.292586 
488 2 6.80314 -80.0358 4.34259 
515 2 8.60159 -79.1296 2.31759 
674 2 5.87258 -78.2233 2.31759 
705 2 7.67097 -77.3174 0.292586 
709 2 7.67097 -77.3174 4.34259 
513 2 9.5326 -80.941 0.292586 
517 2 9.5326 -80.941 4.34259 
514 2 11.3307 -80.036 2.31759 
516 2 10.4001 -78.2235 0.292586 
520 2 10.4001 -78.2235 4.34259 
545 2 13.1292 -79.1299 0.292586 
547 2 12.1985 -77.3177 2.31759 
549 2 13.1292 -79.1299 4.34259 
355 2 14.0602 -80.9413 2.31759 
356 2 15.8583 -80.0363 0.292586 
360 2 15.8583 -80.0363 4.34259 
387 2 17.6568 -79.1303 2.31759 
546 2 14.9277 -78.2238 2.31759 
577 2 16.7261 -77.3181 0.292586 
581 2 16.7261 -77.3181 4.34259 
385 2 18.5879 -80.9417 0.292586 
389 2 18.5879 -80.9417 4.34259 
386 2 20.386 -80.0368 2.31759 
388 2 19.4554 -78.2243 0.292586 
392 2 19.4554 -78.2243 4.34259 
417 2 22.1845 -79.1308 0.292586 
418 2 21.2538 -77.3186 2.31759 
420 2 22.1845 -79.1308 4.34259 
865 2 2.21273 -75.5051 0.292586 
866 2 4.01112 -74.599 2.31759 
867 2 1.28198 -73.693 2.31759 
868 2 3.08035 -72.7869 0.292586 
869 2 2.21273 -75.5051 4.34259 
872 2 3.08035 -72.7869 4.34259 
857 2 0.414281 -76.4112 2.31759 
676 2 4.94184 -76.4112 0.292586 
680 2 4.94184 -76.4112 4.34259 
707 2 6.74026 -75.5052 2.31759 
708 2 8.53862 -74.5992 0.292586 
712 2 8.53862 -74.5992 4.34259 
897 2 5.80949 -73.693 0.292586 
898 2 7.60782 -72.787 2.31759 
901 2 5.80949 -73.693 4.34259 
706 2 9.46937 -76.4114 2.31759 
737 2 11.2678 -75.5054 0.292586 
738 2 13.0661 -74.5995 2.31759 
739 2 10.337 -73.6932 2.31759 
740 2 12.1353 -72.7873 0.292586 
741 2 11.2678 -75.5054 4.34259 
744 2 12.1353 -72.7873 4.34259 
548 2 13.9969 -76.4118 0.292586 
552 2 13.9969 -76.4118 4.34259 
579 2 15.7953 -75.5059 2.31759 
580 2 17.5937 -74.6001 0.292586 
584 2 17.5937 -74.6001 4.34259 
769 2 14.8645 -73.6937 0.292586 
770 2 16.6628 -72.7878 2.31759 
773 2 14.8645 -73.6937 4.34259 
578 2 18.5245 -76.4123 2.31759 
609 2 20.3229 -75.5065 0.292586 
610 2 22.1213 -74.6007 2.31759 
611 2 19.392 -73.6943 2.31759 
612 2 21.1904 -72.7885 0.292586 
613 2 20.3229 -75.5065 4.34259 
616 2 21.1904 -72.7885 4.34259 
1066 2 2.14954 -70.9747 2.31759 
1067 2 1.21869 -69.1625 0.292586 
1070 2 1.21869 -69.1625 4.34259 
1089 2 3.94785 -70.0686 0.292586 
1093 2 3.94785 -70.0686 4.34259 
1065 2 0.351191 -71.8809 0.292586 
1068 2 0.351191 -71.8809 4.34259 
899 2 4.87869 -71.8808 2.31759 
900 2 6.67699 -70.9747 0.292586 
904 2 6.67699 -70.9747 4.34259 
931 2 8.47526 -70.0687 2.31759 
1090 2 5.74612 -69.1625 2.31759 
929 2 9.40613 -71.881 0.292586 
933 2 9.40613 -71.881 4.34259 
930 2 11.2044 -70.975 2.31759 
932 2 10.2735 -69.1627 0.292586 
936 2 10.2735 -69.1627 4.34259 
961 2 13.0027 -70.0691 0.292586 
965 2 13.0027 -70.0691 4.34259 
771 2 13.9336 -71.8814 2.31759 
772 2 15.7318 -70.9756 0.292586 
776 2 15.7318 -70.9756 4.34259 
803 2 17.5301 -70.0698 2.31759 
962 2 14.8009 -69.1633 2.31759 
801 2 18.4611 -71.882 0.292586 
805 2 18.4611 -71.882 4.34259 
802 2 20.2594 -70.9763 2.31759 
804 2 19.3283 -69.164 0.292586 
808 2 19.3283 -69.164 4.34259 
833 2 22.0577 -70.0706 0.292586 
836 2 22.0577 -70.0706 4.34259 
1091 2 3.01698 -68.2564 2.31759 
1265 2 2.08608 -66.4442 0.292586 
1266 2 3.8843 -65.538 2.31759 
1267 2 1.15516 -64.632 2.31759 
1269 2 2.08608 -66.4442 4.34259 
1257 2 0.287818 -67.3504 2.31759 
1092 2 4.81522 -67.3502 0.292586 
1096 2 4.81522 -67.3502 4.34259 
1121 2 7.54435 -68.2564 0.292586 
1123 2 6.61343 -66.4441 2.31759 
1124 2 8.41159 -65.5381 0.292586 
1125 2 7.54435 -68.2564 4.34259 
1128 2 8.41159 -65.5381 4.34259 
1297 2 5.68248 -64.6318 0.292586 
1301 2 5.68248 -64.6318 4.34259 
1122 2 9.34255 -67.3504 2.31759 
963 2 12.0717 -68.2568 2.31759 
1153 2 11.1407 -66.4445 0.292586 
1154 2 12.9388 -65.5385 2.31759 
1155 2 10.2097 -64.6321 2.31759 
1157 2 11.1407 -66.4445 4.34259 
964 2 13.8699 -67.3509 0.292586 
968 2 13.8699 -67.3509 4.34259 
993 2 16.5991 -68.2575 0.292586 
995 2 15.668 -66.4451 2.31759 
996 2 17.4662 -65.5393 0.292586 
997 2 16.5991 -68.2575 4.34259 
1000 2 17.4662 -65.5393 4.34259 
1185 2 14.7369 -64.6327 0.292586 
1189 2 14.7369 -64.6327 4.34259 
994 2 18.3973 -67.3517 2.31759 
834 2 21.1266 -68.2583 2.31759 
1025 2 20.1954 -66.446 0.292586 
1026 2 21.9936 -65.5404 2.31759 
1027 2 19.2643 -64.6336 2.31759 
1029 2 20.1954 -66.446 4.34259 
19 2 3.82054 -61.0072 4.34259 
23 2 3.82054 -61.0072 0.292586 
105 2 1.09144 -60.1013 4.34259 
117 2 1.09144 -60.1013 0.292586 
121 2 2.02241 -61.9135 2.31759 
1268 2 2.95336 -63.7257 0.292586 
1272 2 2.95336 -63.7257 4.34259 
113 2 0.224219 -62.8198 4.34259 
125 2 0.224219 -62.8198 0.292586 
21 2 5.61862 -60.101 2.31759 
1298 2 7.48061 -63.7257 2.31759 
1299 2 4.75151 -62.8195 2.31759 
1300 2 6.54962 -61.9133 0.292586 
1304 2 6.54962 -61.9133 4.34259 
1331 2 8.34767 -61.0072 2.31759 
1329 2 9.2787 -62.8197 0.292586 
1333 2 9.2787 -62.8197 4.34259 
1156 2 12.0078 -63.7261 0.292586 
1160 2 12.0078 -63.7261 4.34259 
1330 2 11.0767 -61.9137 2.31759 
1332 2 10.1457 -60.1012 0.292586 
1336 2 10.1457 -60.1012 4.34259 
1361 2 12.8747 -61.0077 0.292586 
1363 2 12.8747 -61.0077 4.34259 
1187 2 13.8059 -62.8202 2.31759 
1186 2 16.535 -63.7269 2.31759 
1188 2 15.6039 -61.9144 0.292586 
1192 2 15.6039 -61.9144 4.34259 
1219 2 17.4019 -61.0087 2.31759 
1362 2 14.6727 -60.1019 2.31759 
1217 2 18.3331 -62.8212 0.292586 
1221 2 18.3331 -62.8212 4.34259 
1028 2 21.0624 -63.728 0.292586 
1032 2 21.0624 -63.728 4.34259 
1218 2 20.1311 -61.9155 2.31759 
1220 2 19.1998 -60.103 0.292586 
1224 2 19.1998 -60.103 4.34259 
1249 2 21.9291 -61.01 0.292586 
1250 2 21.9291 -61.01 4.34259 
237 2 2.3597 -88.953 6.36759 
241 2 1.44927 -87.2946 8.3926 
263 2 3.28068 -86.3427 6.36759 
265 2 4.17648 -88.2165 8.3926 
86 2 6.88733 -88.9531 8.3926 
103 2 8.7041 -88.2167 6.36759 
262 2 5.9769 -87.2947 6.36759 
297 2 7.80829 -86.3429 8.3926 
102 2 11.4149 -88.9532 6.36759 
108 2 10.5045 -87.2948 8.3926 
135 2 12.3359 -86.343 6.36759 
137 2 13.2317 -88.2168 8.3926 
14 2 15.9426 -88.9534 8.3926 
31 2 17.7594 -88.2171 6.36759 
134 2 15.0321 -87.295 6.36759 
169 2 16.8636 -86.3433 8.3926 
30 2 20.4703 -88.9536 6.36759 
36 2 19.5598 -87.2953 8.3926 
61 2 21.3913 -86.3435 6.36759 
63 2 22.2871 -88.2173 8.3926 
442 2 0.541449 -85.4832 6.36759 
454 2 4.13917 -83.6545 6.36759 
455 2 1.40755 -82.7555 6.36759 
457 2 2.33525 -84.5684 8.3926 
460 2 3.20575 -81.8479 8.3926 
268 2 5.06909 -85.4832 8.3926 
295 2 6.86286 -84.5685 6.36759 
300 2 8.66677 -83.6546 8.3926 
486 2 7.73335 -81.848 6.36759 
489 2 5.93516 -82.7556 8.3926 
294 2 9.5967 -85.4834 6.36759 
326 2 13.1944 -83.6548 6.36759 
327 2 10.4628 -82.7558 6.36759 
329 2 11.3905 -84.5687 8.3926 
332 2 12.2609 -81.8483 8.3926 
140 2 14.1243 -85.4836 8.3926 
167 2 15.9181 -84.5689 6.36759 
172 2 17.7221 -83.6551 8.3926 
358 2 16.7886 -81.8486 6.36759 
361 2 14.9904 -82.7561 8.3926 
166 2 18.652 -85.4839 6.36759 
198 2 22.2498 -83.6555 6.36759 
199 2 19.5181 -82.7564 6.36759 
201 2 20.4458 -84.5692 8.3926 
204 2 21.3163 -81.849 8.3926 
653 2 2.27555 -80.0357 6.36759 
655 2 0.477403 -80.9408 8.3926 
657 2 1.34501 -78.2232 8.3926 
679 2 3.14342 -77.3173 6.36759 
681 2 4.07402 -79.1294 8.3926 
487 2 5.00501 -80.9408 6.36759 
492 2 6.80314 -80.0358 8.3926 
519 2 8.60159 -79.1296 6.36759 
678 2 5.87258 -78.2233 6.36759 
713 2 7.67097 -77.3174 8.3926 
521 2 9.5326 -80.941 8.3926 
518 2 11.3307 -80.036 6.36759 
524 2 10.4001 -78.2235 8.3926 
551 2 12.1985 -77.3177 6.36759 
553 2 13.1292 -79.1299 8.3926 
359 2 14.0602 -80.9413 6.36759 
364 2 15.8583 -80.0363 8.3926 
391 2 17.6568 -79.1303 6.36759 
550 2 14.9277 -78.2238 6.36759 
585 2 16.7261 -77.3181 8.3926 
393 2 18.5879 -80.9417 8.3926 
390 2 20.386 -80.0368 6.36759 
396 2 19.4554 -78.2243 8.3926 
421 2 21.2538 -77.3186 6.36759 
423 2 22.1845 -79.1308 8.3926 
870 2 4.01112 -74.599 6.36759 
871 2 1.28198 -73.693 6.36759 
873 2 2.21273 -75.5051 8.3926 
876 2 3.08035 -72.7869 8.3926 
858 2 0.414281 -76.4112 6.36759 
684 2 4.94184 -76.4112 8.3926 
711 2 6.74026 -75.5052 6.36759 
716 2 8.53862 -74.5992 8.3926 
902 2 7.60782 -72.787 6.36759 
905 2 5.80949 -73.693 8.3926 
710 2 9.46937 -76.4114 6.36759 
742 2 13.0661 -74.5995 6.36759 
743 2 10.337 -73.6932 6.36759 
745 2 11.2678 -75.5054 8.3926 
748 2 12.1353 -72.7873 8.3926 
556 2 13.9969 -76.4118 8.3926 
583 2 15.7953 -75.5059 6.36759 
588 2 17.5937 -74.6001 8.3926 
774 2 16.6628 -72.7878 6.36759 
777 2 14.8645 -73.6937 8.3926 
582 2 18.5245 -76.4123 6.36759 
614 2 22.1213 -74.6007 6.36759 
615 2 19.392 -73.6943 6.36759 
617 2 20.3229 -75.5065 8.3926 
620 2 21.1904 -72.7885 8.3926 
1069 2 2.14954 -70.9747 6.36759 
1073 2 1.21869 -69.1625 8.3926 
1097 2 3.94785 -70.0686 8.3926 
1071 2 0.351191 -71.8809 8.3926 
903 2 4.87869 -71.8808 6.36759 
908 2 6.67699 -70.9747 8.3926 
935 2 8.47526 -70.0687 6.36759 
1094 2 5.74612 -69.1625 6.36759 
937 2 9.40613 -71.881 8.3926 
934 2 11.2044 -70.975 6.36759 
940 2 10.2735 -69.1627 8.3926 
969 2 13.0027 -70.0691 8.3926 
775 2 13.9336 -71.8814 6.36759 
780 2 15.7318 -70.9756 8.3926 
807 2 17.5301 -70.0698 6.36759 
966 2 14.8009 -69.1633 6.36759 
809 2 18.4611 -71.882 8.3926 
806 2 20.2594 -70.9763 6.36759 
812 2 19.3283 -69.164 8.3926 
839 2 22.0577 -70.0706 8.3926 
1095 2 3.01698 -68.2564 6.36759 
1270 2 3.8843 -65.538 6.36759 
1271 2 1.15516 -64.632 6.36759 
1273 2 2.08608 -66.4442 8.3926 
1258 2 0.287818 -67.3504 6.36759 
1100 2 4.81522 -67.3502 8.3926 
1127 2 6.61343 -66.4441 6.36759 
1129 2 7.54435 -68.2564 8.3926 
1132 2 8.41159 -65.5381 8.3926 
1305 2 5.68248 -64.6318 8.3926 
1126 2 9.34255 -67.3504 6.36759 
967 2 12.0717 -68.2568 6.36759 
1158 2 12.9388 -65.5385 6.36759 
1159 2 10.2097 -64.6321 6.36759 
1161 2 11.1407 -66.4445 8.3926 
972 2 13.8699 -67.3509 8.3926 
999 2 15.668 -66.4451 6.36759 
1001 2 16.5991 -68.2575 8.3926 
1004 2 17.4662 -65.5393 8.3926 
1193 2 14.7369 -64.6327 8.3926 
998 2 18.3973 -67.3517 6.36759 
837 2 21.1266 -68.2583 6.36759 
1030 2 21.9936 -65.5404 6.36759 
1031 2 19.2643 -64.6336 6.36759 
1033 2 20.1954 -66.446 8.3926 
15 2 3.82054 -61.0072 8.3926 
95 2 1.09144 -60.1013 8.3926 
109 2 2.02241 -61.9135 6.36759 
1276 2 2.95336 -63.7257 8.3926 
101 2 0.224219 -62.8198 8.3926 
17 2 5.61862 -60.101 6.36759 
1302 2 7.48061 -63.7257 6.36759 
1303 2 4.75151 -62.8195 6.36759 
1308 2 6.54962 -61.9133 8.3926 
1335 2 8.34767 -61.0072 6.36759 
1337 2 9.2787 -62.8197 8.3926 
1164 2 12.0078 -63.7261 8.3926 
1334 2 11.0767 -61.9137 6.36759 
1340 2 10.1457 -60.1012 8.3926 
1365 2 12.8747 -61.0077 8.3926 
1191 2 13.8059 -62.8202 6.36759 
1190 2 16.535 -63.7269 6.36759 
1196 2 15.6039 -61.9144 8.3926 
1223 2 17.4019 -61.0087 6.36759 
1364 2 14.6727 -60.1019 6.36759 
1225 2 18.3331 -62.8212 8.3926 
1036 2 21.0624 -63.728 8.3926 
1222 2 20.1311 -61.9155 6.36759 
1228 2 19.1998 -60.103 8.3926 
1251 2 21.9291 -61.01 8.3926 
240 2 2.3597 -88.953 10.4176 
244 2 1.44927 -87.2946 12.4426 
267 2 3.28068 -86.3427 10.4176 
269 2 4.17648 -88.2165 12.4426 
88 2 6.88733 -88.9531 12.4426 
107 2 8.7041 -88.2167 10.4176 
266 2 5.9769 -87.2947 10.4176 
301 2 7.80829 -86.3429 12.4426 
106 2 11.4149 -88.9532 10.4176 
112 2 10.5045 -87.2948 12.4426 
139 2 12.3359 -86.343 10.4176 
141 2 13.2317 -88.2168 12.4426 
16 2 15.9426 -88.9534 12.4426 
35 2 17.7594 -88.2171 10.4176 
138 2 15.0321 -87.295 10.4176 
173 2 16.8636 -86.3433 12.4426 
34 2 20.4703 -88.9536 10.4176 
40 2 19.5598 -87.2953 12.4426 
64 2 21.3913 -86.3435 10.4176 
66 2 22.2871 -88.2173 12.4426 
443 2 0.541449 -85.4832 10.4176 
458 2 4.13917 -83.6545 10.4176 
459 2 1.40755 -82.7555 10.4176 
461 2 2.33525 -84.5684 12.4426 
464 2 3.20575 -81.8479 12.4426 
272 2 5.06909 -85.4832 12.4426 
299 2 6.86286 -84.5685 10.4176 
304 2 8.66677 -83.6546 12.4426 
490 2 7.73335 -81.848 10.4176 
493 2 5.93516 -82.7556 12.4426 
298 2 9.5967 -85.4834 10.4176 
330 2 13.1944 -83.6548 10.4176 
331 2 10.4628 -82.7558 10.4176 
333 2 11.3905 -84.5687 12.4426 
336 2 12.2609 -81.8483 12.4426 
144 2 14.1243 -85.4836 12.4426 
171 2 15.9181 -84.5689 10.4176 
176 2 17.7221 -83.6551 12.4426 
362 2 16.7886 -81.8486 10.4176 
365 2 14.9904 -82.7561 12.4426 
170 2 18.652 -85.4839 10.4176 
202 2 22.2498 -83.6555 10.4176 
203 2 19.5181 -82.7564 10.4176 
205 2 20.4458 -84.5692 12.4426 
208 2 21.3163 -81.849 12.4426 
656 2 2.27555 -80.0357 10.4176 
658 2 0.477403 -80.9408 12.4426 
660 2 1.34501 -78.2232 12.4426 
683 2 3.14342 -77.3173 10.4176 
685 2 4.07402 -79.1294 12.4426 
491 2 5.00501 -80.9408 10.4176 
496 2 6.80314 -80.0358 12.4426 
523 2 8.60159 -79.1296 10.4176 
682 2 5.87258 -78.2233 10.4176 
717 2 7.67097 -77.3174 12.4426 
525 2 9.5326 -80.941 12.4426 
522 2 11.3307 -80.036 10.4176 
528 2 10.4001 -78.2235 12.4426 
555 2 12.1985 -77.3177 10.4176 
557 2 13.1292 -79.1299 12.4426 
363 2 14.0602 -80.9413 10.4176 
368 2 15.8583 -80.0363 12.4426 
395 2 17.6568 -79.1303 10.4176 
554 2 14.9277 -78.2238 10.4176 
589 2 16.7261 -77.3181 12.4426 
397 2 18.5879 -80.9417 12.4426 
394 2 20.386 -80.0368 10.4176 
400 2 19.4554 -78.2243 12.4426 
424 2 21.2538 -77.3186 10.4176 
426 2 22.1845 -79.1308 12.4426 
874 2 4.01112 -74.599 10.4176 
875 2 1.28198 -73.693 10.4176 
877 2 2.21273 -75.5051 12.4426 
880 2 3.08035 -72.7869 12.4426 
859 2 0.414281 -76.4112 10.4176 
688 2 4.94184 -76.4112 12.4426 
715 2 6.74026 -75.5052 10.4176 
720 2 8.53862 -74.5992 12.4426 
906 2 7.60782 -72.787 10.4176 
909 2 5.80949 -73.693 12.4426 
714 2 9.46937 -76.4114 10.4176 
746 2 13.0661 -74.5995 10.4176 
747 2 10.337 -73.6932 10.4176 
749 2 11.2678 -75.5054 12.4426 
752 2 12.1353 -72.7873 12.4426 
560 2 13.9969 -76.4118 12.4426 
587 2 15.7953 -75.5059 10.4176 
592 2 17.5937 -74.6001 12.4426 
778 2 16.6628 -72.7878 10.4176 
781 2 14.8645 -73.6937 12.4426 
586 2 18.5245 -76.4123 10.4176 
618 2 22.1213 -74.6007 10.4176 
619 2 19.392 -73.6943 10.4176 
621 2 20.3229 -75.5065 12.4426 
624 2 21.1904 -72.7885 12.4426 
1072 2 2.14954 -70.9747 10.4176 
1076 2 1.21869 -69.1625 12.4426 
1101 2 3.94785 -70.0686 12.4426 
1074 2 0.351191 -71.8809 12.4426 
907 2 4.87869 -71.8808 10.4176 
912 2 6.67699 -70.9747 12.4426 
939 2 8.47526 -70.0687 10.4176 
1098 2 5.74612 -69.1625 10.4176 
941 2 9.40613 -71.881 12.4426 
938 2 11.2044 -70.975 10.4176 
944 2 10.2735 -69.1627 12.4426 
973 2 13.0027 -70.0691 12.4426 
779 2 13.9336 -71.8814 10.4176 
784 2 15.7318 -70.9756 12.4426 
811 2 17.5301 -70.0698 10.4176 
970 2 14.8009 -69.1633 10.4176 
813 2 18.4611 -71.882 12.4426 
810 2 20.2594 -70.9763 10.4176 
816 2 19.3283 -69.164 12.4426 
842 2 22.0577 -70.0706 12.4426 
1099 2 3.01698 -68.2564 10.4176 
1274 2 3.8843 -65.538 10.4176 
1275 2 1.15516 -64.632 10.4176 
1277 2 2.08608 -66.4442 12.4426 
1259 2 0.287818 -67.3504 10.4176 
1104 2 4.81522 -67.3502 12.4426 
1131 2 6.61343 -66.4441 10.4176 
1133 2 7.54435 -68.2564 12.4426 
1136 2 8.41159 -65.5381 12.4426 
1309 2 5.68248 -64.6318 12.4426 
1130 2 9.34255 -67.3504 10.4176 
971 2 12.0717 -68.2568 10.4176 
1162 2 12.9388 -65.5385 10.4176 
1163 2 10.2097 -64.6321 10.4176 
1165 2 11.1407 -66.4445 12.4426 
976 2 13.8699 -67.3509 12.4426 
1003 2 15.668 -66.4451 10.4176 
1005 2 16.5991 -68.2575 12.4426 
1008 2 17.4662 -65.5393 12.4426 
1197 2 14.7369 -64.6327 12.4426 
1002 2 18.3973 -67.3517 10.4176 
840 2 21.1266 -68.2583 10.4176 
1034 2 21.9936 -65.5404 10.4176 
1035 2 19.2643 -64.6336 10.4176 
1037 2 20.1954 -66.446 12.4426 
11 2 3.82054 -61.0072 12.4426 
89 2 1.09144 -60.1013 12.4426 
97 2 2.02241 -61.9135 10.4176 
1280 2 2.95336 -63.7257 12.4426 
93 2 0.224219 -62.8198 12.4426 
13 2 5.61862 -60.101 10.4176 
1306 2 7.48061 -63.7257 10.4176 
1307 2 4.75151 -62.8195 10.4176 
1312 2 6.54962 -61.9133 12.4426 
1339 2 8.34767 -61.0072 10.4176 
1341 2 9.2787 -62.8197 12.4426 
1168 2 12.0078 -63.7261 12.4426 
1338 2 11.0767 -61.9137 10.4176 
1344 2 10.1457 -60.1012 12.4426 
1367 2 12.8747 -61.0077 12.4426 
1195 2 13.8059 -62.8202 10.4176 
1194 2 16.535 -63.7269 10.4176 
1200 2 15.6039 -61.9144 12.4426 
1227 2 17.4019 -61.0087 10.4176 
1366 2 14.6727 -60.1019 10.4176 
1229 2 18.3331 -62.8212 12.4426 
1040 2 21.0624 -63.728 12.4426 
1226 2 20.1311 -61.9155 10.4176 
1232 2 19.1998 -60.103 12.4426 
1252 2 21.9291 -61.01 12.4426 
243 2 2.3597 -88.953 14.4676 
247 2 1.44927 -87.2946 16.4926 
271 2 3.28068 -86.3427 14.4676 
273 2 4.17648 -88.2165 16.4926 
90 2 6.88733 -88.9531 16.4926 
111 2 8.7041 -88.2167 14.4676 
270 2 5.9769 -87.2947 14.4676 
305 2 7.80829 -86.3429 16.4926 
110 2 11.4149 -88.9532 14.4676 
116 2 10.5045 -87.2948 16.4926 
143 2 12.3359 -86.343 14.4676 
145 2 13.2317 -88.2168 16.4926 
18 2 15.9426 -88.9534 16.4926 
39 2 17.7594 -88.2171 14.4676 
142 2 15.0321 -87.295 14.4676 
177 2 16.8636 -86.3433 16.4926 
38 2 20.4703 -88.9536 14.4676 
44 2 19.5598 -87.2953 16.4926 
67 2 21.3913 -86.3435 14.4676 
69 2 22.2871 -88.2173 16.4926 
444 2 0.541449 -85.4832 14.4676 
462 2 4.13917 -83.6545 14.4676 
463 2 1.40755 -82.7555 14.4676 
465 2 2.33525 -84.5684 16.4926 
468 2 3.20575 -81.8479 16.4926 
276 2 5.06909 -85.4832 16.4926 
303 2 6.86286 -84.5685 14.4676 
308 2 8.66677 -83.6546 16.4926 
494 2 7.73335 -81.848 14.4676 
497 2 5.93516 -82.7556 16.4926 
302 2 9.5967 -85.4834 14.4676 
334 2 13.1944 -83.6548 14.4676 
335 2 10.4628 -82.7558 14.4676 
337 2 11.3905 -84.5687 16.4926 
340 2 12.2609 -81.8483 16.4926 
148 2 14.1243 -85.4836 16.4926 
175 2 15.9181 -84.5689 14.4676 
180 2 17.7221 -83.6551 16.4926 
366 2 16.7886 -81.8486 14.4676 
369 2 14.9904 -82.7561 16.4926 
174 2 18.652 -85.4839 14.4676 
206 2 22.2498 -83.6555 14.4676 
207 2 19.5181 -82.7564 14.4676 
209 2 20.4458 -84.5692 16.4926 
212 2 21.3163 -81.849 16.4926 
659 2 2.27555 -80.0357 14.4676 
661 2 0.477403 -80.9408 16.4926 
663 2 1.34501 -78.2232 16.4926 
687 2 3.14342 -77.3173 14.4676 
689 2 4.07402 -79.1294 16.4926 
495 2 5.00501 -80.9408 14.4676 
500 2 6.80314 -80.0358 16.4926 
527 2 8.60159 -79.1296 14.4676 
686 2 5.87258 -78.2233 14.4676 
721 2 7.67097 -77.3174 16.4926 
529 2 9.5326 -80.941 16.4926 
526 2 11.3307 -80.036 14.4676 
532 2 10.4001 -78.2235 16.4926 
559 2 12.1985 -77.3177 14.4676 
561 2 13.1292 -79.1299 16.4926 
367 2 14.0602 -80.9413 14.4676 
372 2 15.8583 -80.0363 16.4926 
399 2 17.6568 -79.1303 14.4676 
558 2 14.9277 -78.2238 14.4676 
593 2 16.7261 -77.3181 16.4926 
401 2 18.5879 -80.9417 16.4926 
398 2 20.386 -80.0368 14.4676 
404 2 19.4554 -78.2243 16.4926 
427 2 21.2538 -77.3186 14.4676 
429 2 22.1845 -79.1308 16.4926 
878 2 4.01112 -74.599 14.4676 
879 2 1.28198 -73.693 14.4676 
881 2 2.21273 -75.5051 16.4926 
884 2 3.08035 -72.7869 16.4926 
860 2 0.414281 -76.4112 14.4676 
692 2 4.94184 -76.4112 16.4926 
719 2 6.74026 -75.5052 14.4676 
724 2 8.53862 -74.5992 16.4926 
910 2 7.60782 -72.787 14.4676 
913 2 5.80949 -73.693 16.4926 
718 2 9.46937 -76.4114 14.4676 
750 2 13.0661 -74.5995 14.4676 
751 2 10.337 -73.6932 14.4676 
753 2 11.2678 -75.5054 16.4926 
756 2 12.1353 -72.7873 16.4926 
564 2 13.9969 -76.4118 16.4926 
591 2 15.7953 -75.5059 14.4676 
596 2 17.5937 -74.6001 16.4926 
782 2 16.6628 -72.7878 14.4676 
785 2 14.8645 -73.6937 16.4926 
590 2 18.5245 -76.4123 14.4676 
622 2 22.1213 -74.6007 14.4676 
623 2 19.392 -73.6943 14.4676 
625 2 20.3229 -75.5065 16.4926 
628 2 21.1904 -72.7885 16.4926 
1075 2 2.14954 -70.9747 14.4676 
1079 2 1.21869 -69.1625 16.4926 
1105 2 3.94785 -70.0686 16.4926 
1077 2 0.351191 -71.8809 16.4926 
911 2 4.87869 -71.8808 14.4676 
916 2 6.67699 -70.9747 16.4926 
943 2 8.47526 -70.0687 14.4676 
1102 2 5.74612 -69.1625 14.4676 
945 2 9.40613 -71.881 16.4926 
942 2 11.2044 -70.975 14.4676 
948 2 10.2735 -69.1627 16.4926 
977 2 13.0027 -70.0691 16.4926 
783 2 13.9336 -71.8814 14.4676 
788 2 15.7318 -70.9756 16.4926 
815 2 17.5301 -70.0698 14.4676 
974 2 14.8009 -69.1633 14.4676 
817 2 18.4611 -71.882 16.4926 
814 2 20.2594 -70.9763 14.4676 
820 2 19.3283 -69.164 16.4926 
845 2 22.0577 -70.0706 16.4926 
1103 2 3.01698 -68.2564 14.4676 
1278 2 3.8843 -65.538 14.4676 
1279 2 1.15516 -64.632 14.4676 
1281 2 2.08608 -66.4442 16.4926 
1260 2 0.287818 -67.3504 14.4676 
1108 2 4.81522 -67.3502 16.4926 
1135 2 6.61343 -66.4441 14.4676 
1137 2 7.54435 -68.2564 16.4926 
1140 2 8.41159 -65.5381 16.4926 
1313 2 5.68248 -64.6318 16.4926 
1134 2 9.34255 -67.3504 14.4676 
975 2 12.0717 -68.2568 14.4676 
1166 2 12.9388 -65.5385 14.4676 
1167 2 10.2097 -64.6321 14.4676 
1169 2 11.1407 -66.4445 16.4926 
980 2 13.8699 -67.3509 16.4926 
1007 2 15.668 -66.4451 14.4676 
1009 2 16.5991 -68.2575 16.4926 
1012 2 17.4662 -65.5393 16.4926 
1201 2 14.7369 -64.6327 16.4926 
1006 2 18.3973 -67.3517 14.4676 
843 2 21.1266 -68.2583 14.4676 
1038 2 21.9936 -65.5404 14.4676 
1039 2 19.2643 -64.6336 14.4676 
1041 2 20.1954 -66.446 16.4926 
8 2 3.82054 -61.0072 16.4926 
83 2 1.09144 -60.1013 16.4926 
91 2 2.02241 -61.9135 14.4676 
1284 2 2.95336 -63.7257 16.4926 
87 2 0.224219 -62.8198 16.4926 
9 2 5.61862 -60.101 14.4676 
1310 2 7.48061 -63.7257 14.4676 
1311 2 4.75151 -62.8195 14.4676 
1316 2 6.54962 -61.9133 16.4926 
1343 2 8.34767 -61.0072 14.4676 
1345 2 9.2787 -62.8197 16.4926 
254 2 12.8747 -61.0077 16.4926 
1172 2 12.0078 -63.7261 16.4926 
1342 2 11.0767 -61.9137 14.4676 
1348 2 10.1457 -60.1012 16.4926 
1199 2 13.8059 -62.8202 14.4676 
1198 2 16.535 -63.7269 14.4676 
1204 2 15.6039 -61.9144 16.4926 
1231 2 17.4019 -61.0087 14.4676 
1368 2 14.6727 -60.1019 14.4676 
1233 2 18.3331 -62.8212 16.4926 
1044 2 21.0624 -63.728 16.4926 
1230 2 20.1311 -61.9155 14.4676 
1236 2 19.1998 -60.103 16.4926 
1253 2 21.9291 -61.01 16.4926 
246 2 2.3597 -88.953 18.5176 
275 2 3.28068 -86.3427 18.5176 
249 2 2.3597 -88.953 22.5676 
250 2 1.44927 -87.2946 20.5426 
277 2 4.17648 -88.2165 20.5426 
279 2 3.28068 -86.3427 22.5676 
115 2 8.7041 -88.2167 18.5176 
274 2 5.9769 -87.2947 18.5176 
92 2 6.88733 -88.9531 20.5426 
119 2 8.7041 -88.2167 22.5676 
278 2 5.9769 -87.2947 22.5676 
309 2 7.80829 -86.3429 20.5426 
114 2 11.4149 -88.9532 18.5176 
147 2 12.3359 -86.343 18.5176 
118 2 11.4149 -88.9532 22.5676 
120 2 10.5045 -87.2948 20.5426 
149 2 13.2317 -88.2168 20.5426 
151 2 12.3359 -86.343 22.5676 
43 2 17.7594 -88.2171 18.5176 
146 2 15.0321 -87.295 18.5176 
20 2 15.9426 -88.9534 20.5426 
47 2 17.7594 -88.2171 22.5676 
150 2 15.0321 -87.295 22.5676 
181 2 16.8636 -86.3433 20.5426 
42 2 20.4703 -88.9536 18.5176 
70 2 21.3913 -86.3435 18.5176 
46 2 20.4703 -88.9536 22.5676 
48 2 19.5598 -87.2953 20.5426 
72 2 22.2871 -88.2173 20.5426 
73 2 21.3913 -86.3435 22.5676 
445 2 0.541449 -85.4832 18.5176 
466 2 4.13917 -83.6545 18.5176 
467 2 1.40755 -82.7555 18.5176 
446 2 0.541449 -85.4832 22.5676 
469 2 2.33525 -84.5684 20.5426 
470 2 4.13917 -83.6545 22.5676 
471 2 1.40755 -82.7555 22.5676 
472 2 3.20575 -81.8479 20.5426 
307 2 6.86286 -84.5685 18.5176 
498 2 7.73335 -81.848 18.5176 
280 2 5.06909 -85.4832 20.5426 
311 2 6.86286 -84.5685 22.5676 
312 2 8.66677 -83.6546 20.5426 
501 2 5.93516 -82.7556 20.5426 
502 2 7.73335 -81.848 22.5676 
306 2 9.5967 -85.4834 18.5176 
338 2 13.1944 -83.6548 18.5176 
339 2 10.4628 -82.7558 18.5176 
310 2 9.5967 -85.4834 22.5676 
341 2 11.3905 -84.5687 20.5426 
342 2 13.1944 -83.6548 22.5676 
343 2 10.4628 -82.7558 22.5676 
344 2 12.2609 -81.8483 20.5426 
179 2 15.9181 -84.5689 18.5176 
370 2 16.7886 -81.8486 18.5176 
152 2 14.1243 -85.4836 20.5426 
183 2 15.9181 -84.5689 22.5676 
184 2 17.7221 -83.6551 20.5426 
373 2 14.9904 -82.7561 20.5426 
374 2 16.7886 -81.8486 22.5676 
178 2 18.652 -85.4839 18.5176 
210 2 22.2498 -83.6555 18.5176 
211 2 19.5181 -82.7564 18.5176 
182 2 18.652 -85.4839 22.5676 
213 2 20.4458 -84.5692 20.5426 
214 2 22.2498 -83.6555 22.5676 
215 2 19.5181 -82.7564 22.5676 
216 2 21.3163 -81.849 20.5426 
662 2 2.27555 -80.0357 18.5176 
691 2 3.14342 -77.3173 18.5176 
664 2 0.477403 -80.9408 20.5426 
665 2 2.27555 -80.0357 22.5676 
666 2 1.34501 -78.2232 20.5426 
693 2 4.07402 -79.1294 20.5426 
695 2 3.14342 -77.3173 22.5676 
499 2 5.00501 -80.9408 18.5176 
531 2 8.60159 -79.1296 18.5176 
690 2 5.87258 -78.2233 18.5176 
503 2 5.00501 -80.9408 22.5676 
504 2 6.80314 -80.0358 20.5426 
535 2 8.60159 -79.1296 22.5676 
694 2 5.87258 -78.2233 22.5676 
725 2 7.67097 -77.3174 20.5426 
530 2 11.3307 -80.036 18.5176 
563 2 12.1985 -77.3177 18.5176 
533 2 9.5326 -80.941 20.5426 
534 2 11.3307 -80.036 22.5676 
536 2 10.4001 -78.2235 20.5426 
565 2 13.1292 -79.1299 20.5426 
567 2 12.1985 -77.3177 22.5676 
371 2 14.0602 -80.9413 18.5176 
403 2 17.6568 -79.1303 18.5176 
562 2 14.9277 -78.2238 18.5176 
375 2 14.0602 -80.9413 22.5676 
376 2 15.8583 -80.0363 20.5426 
407 2 17.6568 -79.1303 22.5676 
566 2 14.9277 -78.2238 22.5676 
597 2 16.7261 -77.3181 20.5426 
402 2 20.386 -80.0368 18.5176 
430 2 21.2538 -77.3186 18.5176 
405 2 18.5879 -80.9417 20.5426 
406 2 20.386 -80.0368 22.5676 
408 2 19.4554 -78.2243 20.5426 
432 2 22.1845 -79.1308 20.5426 
433 2 21.2538 -77.3186 22.5676 
882 2 4.01112 -74.599 18.5176 
883 2 1.28198 -73.693 18.5176 
885 2 2.21273 -75.5051 20.5426 
886 2 4.01112 -74.599 22.5676 
887 2 1.28198 -73.693 22.5676 
888 2 3.08035 -72.7869 20.5426 
861 2 0.414281 -76.4112 18.5176 
862 2 0.414281 -76.4112 22.5676 
723 2 6.74026 -75.5052 18.5176 
914 2 7.60782 -72.787 18.5176 
696 2 4.94184 -76.4112 20.5426 
727 2 6.74026 -75.5052 22.5676 
728 2 8.53862 -74.5992 20.5426 
917 2 5.80949 -73.693 20.5426 
918 2 7.60782 -72.787 22.5676 
722 2 9.46937 -76.4114 18.5176 
754 2 13.0661 -74.5995 18.5176 
755 2 10.337 -73.6932 18.5176 
726 2 9.46937 -76.4114 22.5676 
757 2 11.2678 -75.5054 20.5426 
758 2 13.0661 -74.5995 22.5676 
759 2 10.337 -73.6932 22.5676 
760 2 12.1353 -72.7873 20.5426 
595 2 15.7953 -75.5059 18.5176 
786 2 16.6628 -72.7878 18.5176 
568 2 13.9969 -76.4118 20.5426 
599 2 15.7953 -75.5059 22.5676 
600 2 17.5937 -74.6001 20.5426 
789 2 14.8645 -73.6937 20.5426 
790 2 16.6628 -72.7878 22.5676 
594 2 18.5245 -76.4123 18.5176 
626 2 22.1213 -74.6007 18.5176 
627 2 19.392 -73.6943 18.5176 
598 2 18.5245 -76.4123 22.5676 
629 2 20.3229 -75.5065 20.5426 
630 2 22.1213 -74.6007 22.5676 
631 2 19.392 -73.6943 22.5676 
632 2 21.1904 -72.7885 20.5426 
1078 2 2.14954 -70.9747 18.5176 
1081 2 2.14954 -70.9747 22.5676 
1082 2 1.21869 -69.1625 20.5426 
1109 2 3.94785 -70.0686 20.5426 
1080 2 0.351191 -71.8809 20.5426 
915 2 4.87869 -71.8808 18.5176 
947 2 8.47526 -70.0687 18.5176 
1106 2 5.74612 -69.1625 18.5176 
919 2 4.87869 -71.8808 22.5676 
920 2 6.67699 -70.9747 20.5426 
951 2 8.47526 -70.0687 22.5676 
1110 2 5.74612 -69.1625 22.5676 
946 2 11.2044 -70.975 18.5176 
949 2 9.40613 -71.881 20.5426 
950 2 11.2044 -70.975 22.5676 
952 2 10.2735 -69.1627 20.5426 
981 2 13.0027 -70.0691 20.5426 
787 2 13.9336 -71.8814 18.5176 
819 2 17.5301 -70.0698 18.5176 
978 2 14.8009 -69.1633 18.5176 
791 2 13.9336 -71.8814 22.5676 
792 2 15.7318 -70.9756 20.5426 
823 2 17.5301 -70.0698 22.5676 
982 2 14.8009 -69.1633 22.5676 
818 2 20.2594 -70.9763 18.5176 
821 2 18.4611 -71.882 20.5426 
822 2 20.2594 -70.9763 22.5676 
824 2 19.3283 -69.164 20.5426 
848 2 22.0577 -70.0706 20.5426 
1107 2 3.01698 -68.2564 18.5176 
1282 2 3.8843 -65.538 18.5176 
1283 2 1.15516 -64.632 18.5176 
1111 2 3.01698 -68.2564 22.5676 
1285 2 2.08608 -66.4442 20.5426 
1286 2 3.8843 -65.538 22.5676 
1287 2 1.15516 -64.632 22.5676 
1262 2 0.287818 -67.3504 22.5676 
1261 2 0.287818 -67.3504 18.5176 
1139 2 6.61343 -66.4441 18.5176 
1112 2 4.81522 -67.3502 20.5426 
1141 2 7.54435 -68.2564 20.5426 
1143 2 6.61343 -66.4441 22.5676 
1144 2 8.41159 -65.5381 20.5426 
1317 2 5.68248 -64.6318 20.5426 